% Model:              EDL.mph
% Version:            COMSOL 4.4.0.248
% Date:               Nov 6 2016, 17:30
% Dimension:          1
% Nodes:              1448
% Expressions:        1
% Description:        Line graph
% r                       Height
0                         -0.0663059304093081
4.189289780832979E-11     -0.06630613976066234
8.378579561665958E-11     -0.06630676803184075
1.2567869342498936E-10    -0.06630781522284343
1.6757159123331916E-10    -0.06630928133367031
2.0946448904164892E-10    -0.0663111663643214
2.5574492353830083E-10    -0.06631373579519641
3.020253580349527E-10     -0.06631681687555464
3.483057925316046E-10     -0.0663204096053962
3.945862270282565E-10     -0.06632451398472107
4.4086666152490835E-10    -0.06632913001352919
4.919941500333006E-10     -0.06633482443634263
5.431216385416927E-10     -0.06634114433156171
5.942491270500851E-10     -0.06634808969918654
6.453766155584772E-10     -0.06635566053921707
6.965041040668695E-10     -0.06636385685165329
7.529862889122908E-10     -0.06637363913677644
8.094684737577123E-10     -0.06638418694694365
8.659506586031335E-10     -0.06639550028215498
9.22432843448555E-10      -0.06640757914241041
9.789150282939763E-10     -0.06642042352770992
1.0413127193936645E-9     -0.06643550408117756
1.1037104104933525E-9     -0.06645152301682943
1.1661081015930407E-9     -0.06646848033466558
1.228505792692729E-9      -0.06648637603468603
1.290903483792417E-9      -0.06650521011689071
1.3598362248412454E-9     -0.06652710963683205
1.4287689658900735E-9     -0.0665501617153441
1.4977017069389018E-9     -0.06657436635242694
1.5666344479877299E-9     -0.06659972354808055
1.6355671890365582E-9     -0.06662623330230487
1.7117194107681762E-9     -0.06665686300631771
1.7878716324997942E-9     -0.06668891192751776
1.864023854231412E-9      -0.06672238006590503
1.94017607596303E-9       -0.06675726742147953
2.016328297694648E-9      -0.06679357399424121
2.1004561126252937E-9     -0.0668353391683671
2.184583927555939E-9      -0.06687885753379305
2.268711742486584E-9      -0.06692412909051906
2.3528395574172295E-9     -0.06697115383854513
2.4369673723478746E-9     -0.06701993177787124
2.529906082027975E-9      -0.06707586696987955
2.622844791708075E-9      -0.06713397672836226
2.715783501388175E-9      -0.06719426105331942
2.808722211068275E-9      -0.06725671994475105
2.901660920748375E-9      -0.06732135340265707
3.004333310003815E-9      -0.06739530143788389
3.107005699259255E-9      -0.06747196052758812
3.209678088514695E-9      -0.06755133067176985
3.3123504777701346E-9     -0.06763341187042905
3.4150228670255746E-9     -0.06771820412356568
3.5284483659646214E-9     -0.06781505700187507
3.641873864903668E-9      -0.06791531158822176
3.755299363842715E-9      -0.06801896788260584
3.868724862781761E-9      -0.06812602588502731
3.982150361720808E-9      -0.06823648559548609
4.107455167620838E-9      -0.06836251492121034
4.2327599735208685E-9     -0.0684928471532553
4.358064779420899E-9      -0.06862748229162102
4.48336958532093E-9       -0.0687664203363075
4.60867439122096E-9       -0.0689096612873147
4.74710265076309E-9       -0.06907298171106718
4.885530910305219E-9      -0.06924180046620781
5.023959169847349E-9      -0.06941611755273669
5.162387429389479E-9      -0.06959593297065375
5.3008156889316085E-9     -0.069781246719959
5.453741850582991E-9      -0.06999248326450729
5.606668012234374E-9      -0.07021083589645308
5.7595941738857555E-9     -0.07043630461579645
5.912520335537139E-9      -0.07066888942253736
6.065446497188521E-9      -0.0709085903166758
6.234388958943705E-9      -0.07118186842702275
6.403331420698887E-9      -0.07146450572731726
6.57227388245407E-9       -0.0717565022175594
6.7412163442092536E-9     -0.07205785789774916
6.910158805964436E-9      -0.07236857276788645
7.096794990760213E-9      -0.0727230392691635
7.283431175555989E-9      -0.07309006948852943
7.470067360351766E-9      -0.07346966342598428
7.656703545147541E-9      -0.07386182108152803
7.843339729943318E-9      -0.07426654245516068
8.049522589119894E-9      -0.07472880584717662
8.255705448296469E-9      -0.0752083840695886
8.461888307473043E-9      -0.07570527712239669
8.66807116664962E-9       -0.07621948500560086
8.874254025826196E-9      -0.07675100771920107
9.099403220660955E-9      -0.07735214787837631
9.324552415495714E-9      -0.07797738743695896
9.549701610330474E-9      -0.07862672639494907
9.774850805165232E-9      -0.07930016475234664
9.999999999999992E-9      -0.0799977025091516
1.0225149194834752E-8     -0.08072103152096276
1.045029838966951E-8      -0.0814734046353654
1.067544758450427E-8      -0.08225482185235958
1.0900596779339028E-8     -0.08306528317194528
1.1125745974173788E-8     -0.08390478859412248
1.1331928833350368E-8     -0.08470145956966627
1.1538111692526947E-8     -0.08552810283324418
1.1744294551703525E-8     -0.08638471838485622
1.1950477410880106E-8     -0.08727130622450244
1.2156660270056686E-8     -0.08818786635218276
1.2343296454852464E-8     -0.08904605304448744
1.252993263964824E-8      -0.08993481181696107
1.2716568824444016E-8     -0.0908541426696037
1.2903205009239795E-8     -0.09180404560241534
1.308984119403557E-8      -0.09278452061539594
1.3258783655790755E-8     -0.09370123917715562
1.3427726117545937E-8     -0.09464942467050096
1.359666857930112E-8      -0.09562907709543197
1.3765611041056303E-8     -0.09664019645194871
1.3934553502811485E-8     -0.09768278274005107
1.4087479664462868E-8     -0.09865669886974708
1.4240405826114248E-8     -0.09966328664730009
1.439333198776563E-8      -0.1007025460727102
1.4546258149417012E-8     -0.10177447714597741
1.4699184311068394E-8     -0.10287907986710165
1.4837612570610523E-8     -0.10391041032140969
1.4976040830152653E-8     -0.1049759659634933
1.511446908969478E-8      -0.10607574679335258
1.525289734923691E-8      -0.10720975281098749
1.539132560877904E-8      -0.10837798401639799
1.5516630414679068E-8     -0.10946852663671153
1.5641935220579097E-8     -0.11059525289707513
1.576724002647913E-8      -0.11175816279748887
1.5892544832379157E-8     -0.11295725633795274
1.6017849638279186E-8     -0.11419253351846669
1.6131275137218235E-8     -0.11534578528491914
1.6244700636157284E-8     -0.11653767705987532
1.635812613509633E-8      -0.1177682088433353
1.6471551634035378E-8     -0.11903738063529912
1.6584977132974427E-8     -0.12034519243576668
1.6687649522229866E-8     -0.1215666401126682
1.6790321911485305E-8     -0.12282982940904649
1.6892994300740748E-8     -0.12413476032490167
1.6995666689996187E-8     -0.1254814328602337
1.7098339079251626E-8     -0.12686984701504253
1.7191277788931725E-8     -0.12816746493153033
1.7284216498611824E-8     -0.12951078886864725
1.737715520829192E-8      -0.1308998188263934
1.747009391797202E-8      -0.13233455480476874
1.756303262765212E-8      -0.1338149968037732
1.7647160442582766E-8     -0.13520002059359781
1.773128825751341E-8      -0.13663589674577756
1.7815416072444053E-8     -0.1381226252603126
1.7899543887374696E-8     -0.13966020613720292
1.7983671702305343E-8     -0.14124863937644846
1.805982392403696E-8      -0.1427367278102064
1.8135976145768583E-8     -0.14428247681908876
1.8212128367500202E-8     -0.14588588640309566
1.8288280589231824E-8     -0.1475469565622271
1.8364432810963442E-8     -0.14926568729648299
1.8433365552012273E-8     -0.15087874888253003
1.8502298293061096E-8     -0.15255873547088047
1.857123103410993E-8      -0.15430564706153438
1.8640163775158753E-8     -0.15611948365449174
1.8709096516207583E-8     -0.1580002452497525
1.8771494207307272E-8     -0.15976958187782822
1.883389189840696E-8      -0.16161896724178823
1.8896289589506644E-8     -0.1635484013416327
1.8958687280606333E-8     -0.16555788417736156
1.9021084971706022E-8     -0.16764741574897474
1.9077567156551446E-8     -0.16961938868968843
1.9134049341396865E-8     -0.17169101391064454
1.9190531526242286E-8     -0.1738622914118431
1.9247013711087707E-8     -0.17613322119328412
1.930349589593313E-8      -0.17850380325496754
1.9354623384441523E-8     -0.18075052753568463
1.9405750872949914E-8     -0.18312854401701234
1.9456878361458308E-8     -0.18563785269895083
1.95080058499667E-8       -0.18827845358150008
1.9559133338475093E-8     -0.19105034666465998
1.9605413772971743E-8     -0.19369339611598252
1.9651694207468397E-8     -0.19652405065854814
1.9697974641965047E-8     -0.19954231029235692
1.9744255076461697E-8     -0.20274817501740888
1.9790535510958347E-8     -0.20614164483370387
1.9832428408766678E-8     -0.20940834769136935
1.987432130657501E-8      -0.2129762531046107
1.991621420438334E-8      -0.21684536107342808
1.995810710219167E-8      -0.2210156715978215
2.0E-8                    -0.22548718467779083
0                         -0.024874323673963805
4.189289780832979E-11     -0.02487446481663811
8.378579561665958E-11     -0.02487488836919772
1.2567869342498936E-10    -0.024875594331642645
1.6757159123331916E-10    -0.024876582703972895
2.0946448904164892E-10    -0.024877853486188446
2.5574492353830083E-10    -0.024879585655228766
3.020253580349527E-10     -0.024881662708052033
3.483057925316046E-10     -0.024884084644658272
3.945862270282565E-10     -0.024886851465047474
4.4086666152490835E-10    -0.024889963169219632
4.919941500333006E-10     -0.024893801789595858
5.431216385416927E-10     -0.02489806191317403
5.942491270500851E-10     -0.02490274353995417
6.453766155584772E-10     -0.02490784666993628
6.965041040668695E-10     -0.024913371303120338
7.529862889122908E-10     -0.024919964800623962
8.094684737577123E-10     -0.024927073962632437
8.659506586031335E-10     -0.02493469878914577
9.22432843448555E-10      -0.024942839280163963
9.789150282939763E-10     -0.024951495435687004
1.0413127193936645E-9     -0.024961658223877428
1.1037104104933525E-9     -0.024972452698217983
1.1661081015930407E-9     -0.02498387885870869
1.228505792692729E-9      -0.024995936705349536
1.290903483792417E-9      -0.025008626238140517
1.3598362248412454E-9     -0.02502338028227969
1.4287689658900735E-9     -0.02503890944096366
1.4977017069389018E-9     -0.02505521371419244
1.5666344479877299E-9     -0.02507229310196603
1.6355671890365582E-9     -0.025090147604284414
1.7117194107681762E-9     -0.025110775231188046
1.7878716324997942E-9     -0.025132356006559255
1.864023854231412E-9      -0.02515488993039805
1.94017607596303E-9       -0.02517837700270444
2.016328297694648E-9      -0.0252028172234784
2.1004561126252937E-9     -0.02523092876174219
2.184583927555939E-9      -0.0252602155390996
2.268711742486584E-9      -0.02529067755555065
2.3528395574172295E-9     -0.02532231481109534
2.4369673723478746E-9     -0.025355127305733652
2.529906082027975E-9      -0.025392748554124177
2.622844791708075E-9      -0.025431823798289097
2.715783501388175E-9      -0.025472353038228434
2.808722211068275E-9      -0.025514336273942177
2.901660920748375E-9      -0.02555777350543032
3.004333310003815E-9      -0.025607460174136818
3.107005699259255E-9      -0.025658953350473364
3.209678088514695E-9      -0.025712253034439976
3.3123504777701346E-9     -0.025767359226036644
3.4150228670255746E-9     -0.025824271925263365
3.5284483659646214E-9     -0.02588926136069955
3.641873864903668E-9      -0.025956507140574923
3.755299363842715E-9      -0.0260260092648895
3.868724862781761E-9      -0.02609776773364328
3.982150361720808E-9      -0.02617178254683624
4.107455167620838E-9      -0.026256198028094865
4.2327599735208685E-9     -0.026343450166912856
4.358064779420899E-9      -0.02643353896329022
4.48336958532093E-9       -0.026526464417226968
4.60867439122096E-9       -0.02662222652872308
4.74710265076309E-9       -0.02673135727376618
4.885530910305219E-9      -0.02684408313489811
5.023959169847349E-9      -0.026960404112118887
5.162387429389479E-9      -0.027080320205428506
5.3008156889316085E-9     -0.027203831414826952
5.453741850582991E-9      -0.027344524336171523
5.606668012234374E-9      -0.02748981918375333
5.7595941738857555E-9     -0.02763971595757239
5.912520335537139E-9      -0.027794214657628706
6.065446497188521E-9      -0.027953315283922257
6.234388958943705E-9      -0.028134535753433932
6.403331420698887E-9      -0.028321719430725693
6.57227388245407E-9       -0.02851486631579757
6.7412163442092536E-9     -0.028713976408649554
6.910158805964436E-9      -0.028919049709281636
7.096794990760213E-9      -0.029152705431024627
7.283431175555989E-9      -0.029394205752824414
7.470067360351766E-9      -0.029643550674681017
7.656703545147541E-9      -0.02990074019659443
7.843339729943318E-9      -0.03016577431856464
8.049522589119894E-9      -0.030467964680202547
8.255705448296469E-9      -0.030780669004265446
8.461888307473043E-9      -0.03110388729075335
8.66807116664962E-9       -0.031437619539666256
8.874254025826196E-9      -0.03178186575100415
9.099403220660955E-9      -0.03217025081074559
9.324552415495714E-9      -0.032572715276835036
9.549701610330474E-9      -0.032989259149272504
9.774850805165232E-9      -0.03341988242805799
9.999999999999992E-9      -0.03386458511319147
1.0225149194834752E-8     -0.03432413826435305
1.045029838966951E-8      -0.03479981840512653
1.067544758450427E-8      -0.03529162553551193
1.0900596779339028E-8     -0.03579955965550924
1.1125745974173788E-8     -0.036323620765118456
1.1331928833350368E-8     -0.036818682082629055
1.1538111692526947E-8     -0.03732939011504531
1.1744294551703525E-8     -0.037855744862367244
1.1950477410880106E-8     -0.038397746324594854
1.2156660270056686E-8     -0.038955394501728115
1.2343296454852464E-8     -0.03947467557206798
1.252993263964824E-8      -0.04000882524772564
1.2716568824444016E-8     -0.040557843528701155
1.2903205009239795E-8     -0.041121730414994506
1.308984119403557E-8      -0.041700485906605675
1.3258783655790755E-8     -0.04223815566565027
1.3427726117545937E-8     -0.04278995464304026
1.359666857930112E-8      -0.04335588283877565
1.3765611041056303E-8     -0.04393594025285647
1.3934553502811485E-8     -0.04453012688528267
1.4087479664462868E-8     -0.04508108245711661
1.4240405826114248E-8     -0.04564545314541494
1.439333198776563E-8      -0.04622323895017768
1.4546258149417012E-8     -0.04681443987140482
1.4699184311068394E-8     -0.04741905590909636
1.4837612570610523E-8     -0.04797878853415823
1.4976040830152653E-8     -0.048551239634448684
1.511446908969478E-8      -0.04913640920996776
1.525289734923691E-8      -0.049734297260715446
1.539132560877904E-8      -0.05034490378669172
1.5516630414679068E-8     -0.05090940665972144
1.5641935220579097E-8     -0.05148594288574117
1.576724002647913E-8      -0.052074512464750936
1.5892544832379157E-8     -0.05267511539675074
1.6017849638279186E-8     -0.053287751681740554
1.6131275137218235E-8     -0.053853447655246085
1.6244700636157284E-8     -0.05443050028576922
1.635812613509633E-8      -0.05501890957330998
1.6471551634035378E-8     -0.05561867551786837
1.6584977132974427E-8     -0.056229798119444376
1.6687649522229866E-8     -0.05679348768747384
1.6790321911485305E-8     -0.057367864965426986
1.6892994300740748E-8     -0.05795292995330384
1.6995666689996187E-8     -0.058548682651104404
1.7098339079251626E-8     -0.05915512305882864
1.7191277788931725E-8     -0.05971394487520941
1.7284216498611824E-8     -0.06028279364120448
1.737715520829192E-8      -0.06086166935681386
1.747009391797202E-8      -0.06145057202203756
1.756303262765212E-8      -0.06204950163687556
1.7647160442582766E-8     -0.06260090164596048
1.773128825751341E-8      -0.06316167670774045
1.7815416072444053E-8     -0.06373182682221552
1.7899543887374696E-8     -0.06431135198938566
1.7983671702305343E-8     -0.06490025220925084
1.805982392403696E-8      -0.06544195732209589
1.8135976145768583E-8     -0.0659923953316885
1.8212128367500202E-8     -0.06655156623802874
1.8288280589231824E-8     -0.06711947004111658
1.8364432810963442E-8     -0.067696106740952
1.8433365552012273E-8     -0.06822610374039348
1.8502298293061096E-8     -0.06876420293901844
1.857123103410993E-8      -0.06931040433682698
1.8640163775158753E-8     -0.06986470793381908
1.8709096516207583E-8     -0.07042711372999466
1.8771494207307272E-8     -0.07094363410767003
1.883389189840696E-8      -0.07146763993805627
1.8896289589506644E-8     -0.07199913122115341
1.8958687280606333E-8     -0.07253810795696146
1.9021084971706022E-8     -0.07308457014548038
1.9077567156551446E-8     -0.07358607869723266
1.9134049341396865E-8     -0.07409447266305423
1.9190531526242286E-8     -0.07460975204294512
1.9247013711087707E-8     -0.07513191683690537
1.930349589593313E-8      -0.0756609670449349
1.9354623384441523E-8     -0.07614615258279403
1.9405750872949914E-8     -0.07663764299377304
1.9456878361458308E-8     -0.07713543827787199
1.95080058499667E-8       -0.07763953843509086
1.9559133338475093E-8     -0.07814994346542961
1.9605413772971743E-8     -0.07861771026771865
1.9651694207468397E-8     -0.07909122307566116
1.9697974641965047E-8     -0.07957048188925718
1.9744255076461697E-8     -0.08005548670850669
1.9790535510958347E-8     -0.08054623753340968
1.9832428408766678E-8     -0.0809957072883744
1.987432130657501E-8      -0.08145038169227047
1.991621420438334E-8      -0.08191026074509794
1.995810710219167E-8      -0.08237534444685679
2.0E-8                    -0.08284563279754703
0                         -0.013194404368230103
4.189289780832979E-11     -0.013194477441284451
8.378579561665958E-11     -0.013194696932582333
1.2567869342498936E-10    -0.013195062842123762
1.6757159123331916E-10    -0.013195575169908734
2.0946448904164892E-10    -0.013196233915937244
2.5574492353830083E-10    -0.013197131811885157
3.020253580349527E-10     -0.013198208885249372
3.483057925316046E-10     -0.013199465136029894
3.945862270282565E-10     -0.013200900564226726
4.4086666152490835E-10    -0.013202515169839857
4.919941500333006E-10     -0.013204507325855019
5.431216385416927E-10     -0.013206719458461661
5.942491270500851E-10     -0.013209151567659795
6.453766155584772E-10     -0.013211803653449419
6.965041040668695E-10     -0.013214675715830524
7.529862889122908E-10     -0.013218104807559932
8.094684737577123E-10     -0.013221805099974929
8.659506586031335E-10     -0.01322577659307553
9.22432843448555E-10      -0.013230019286861731
9.789150282939763E-10     -0.013234533181333526
1.0413127193936645E-9     -0.013239836324979944
1.1037104104933525E-9     -0.013245475616853701
1.1661081015930407E-9     -0.01325145105695481
1.228505792692729E-9      -0.013257762645283265
1.290903483792417E-9      -0.01326441038183906
1.3598362248412454E-9     -0.01327214760610016
1.4287689658900735E-9     -0.01328030430023285
1.4977017069389018E-9     -0.013288880464237141
1.5666344479877299E-9     -0.013297876098113035
1.6355671890365582E-9     -0.01330729120186052
1.7117194107681762E-9     -0.01331818453965484
1.7878716324997942E-9     -0.013329605708017526
1.864023854231412E-9      -0.013341554706948582
1.94017607596303E-9       -0.01335403153644801
2.016328297694648E-9      -0.013367036196515802
2.1004561126252937E-9     -0.013382024291378742
2.184583927555939E-9      -0.013397683315676328
2.268711742486584E-9      -0.013414013269408566
2.3528395574172295E-9     -0.013431014152575457
2.4369673723478746E-9     -0.013448685965176992
2.529906082027975E-9      -0.01346900173780622
2.622844791708075E-9      -0.013490180701130287
2.715783501388175E-9      -0.013512222855149197
2.808722211068275E-9      -0.013535128199862951
2.901660920748375E-9      -0.013558896735271544
3.004333310003815E-9      -0.013586180017882745
3.107005699259255E-9      -0.013614589736237468
3.209678088514695E-9      -0.013644125890335725
3.3123504777701346E-9     -0.013674788480177514
3.4150228670255746E-9     -0.013706577505762825
3.5284483659646214E-9     -0.01374304152078533
3.641873864903668E-9      -0.013780999804835064
3.755299363842715E-9      -0.013820452357912036
3.868724862781761E-9      -0.01386139918001624
3.982150361720808E-9      -0.013903840271147673
4.107455167620838E-9      -0.013952522669658334
4.2327599735208685E-9     -0.0140032245035753
4.358064779420899E-9      -0.014055945772898586
4.48336958532093E-9       -0.014110686477628186
4.60867439122096E-9       -0.014167446617764095
4.74710265076309E-9       -0.01423259596168029
4.885530910305219E-9      -0.014300531782785673
5.023959169847349E-9      -0.01437125408108025
5.162387429389479E-9      -0.01444476285656402
5.3008156889316085E-9     -0.014521058109236975
5.453741850582991E-9      -0.014608742384984824
5.606668012234374E-9      -0.01470036057360993
5.7595941738857555E-9     -0.014795912675112299
5.912520335537139E-9      -0.014895398689491936
6.065446497188521E-9      -0.014998818616748828
6.234388958943705E-9      -0.015117905536815739
6.403331420698887E-9      -0.015242686524209759
6.57227388245407E-9       -0.0153731615789309
6.7412163442092536E-9     -0.015509330700979158
6.910158805964436E-9      -0.015651193890354527
7.096794990760213E-9      -0.01581497003216098
7.283431175555989E-9      -0.015987214701396718
7.470067360351766E-9      -0.016167927898061756
7.656703545147541E-9      -0.01635710962215609
7.843339729943318E-9      -0.01655475987367971
8.049522589119894E-9      -0.01678368825048382
8.255705448296469E-9      -0.01702559152470612
8.461888307473043E-9      -0.01728046969634661
8.66807116664962E-9       -0.017548322765405296
8.874254025826196E-9      -0.01782915073188217
9.099403220660955E-9      -0.018151903164801413
9.324552415495714E-9      -0.01849469341647549
9.549701610330474E-9      -0.018857521486904408
9.774850805165232E-9      -0.019240387376088176
9.999999999999992E-9      -0.01964329108402678
1.0225149194834752E-8     -0.0200684913110348
1.045029838966951E-8      -0.020520152573972997
1.067544758450427E-8      -0.020998274872841387
1.0900596779339028E-8     -0.021502858207639974
1.1125745974173788E-8     -0.02203390257836874
1.1331928833350368E-8     -0.02254656427843614
1.1538111692526947E-8     -0.023088501084822022
1.1744294551703525E-8     -0.023659712997526394
1.1950477410880106E-8     -0.024260200016549268
1.2156660270056686E-8     -0.024889962141890615
1.2343296454852464E-8     -0.025488638998941122
1.252993263964824E-8      -0.026118615500345815
1.2716568824444016E-8     -0.0267798916461047
1.2903205009239795E-8     -0.027472467436217788
1.308984119403557E-8      -0.028196342870685055
1.3258783655790755E-8     -0.028882021366654603
1.3427726117545937E-8     -0.029600846873456262
1.359666857930112E-8      -0.030352819391090063
1.3765611041056303E-8     -0.031137938919555994
1.3934553502811485E-8     -0.031956205458854046
1.4087479664462868E-8     -0.032729018099530126
1.4240405826114248E-8     -0.033536743644698844
1.439333198776563E-8      -0.03437938209436022
1.4546258149417012E-8     -0.03525693344851426
1.4699184311068394E-8     -0.03616939770716094
1.4837612570610523E-8     -0.037029134245392746
1.4976040830152653E-8     -0.03792559427642825
1.511446908969478E-8      -0.03885877780026747
1.525289734923691E-8      -0.039828684816910404
1.539132560877904E-8      -0.04083531532635703
1.5516630414679068E-8     -0.041782032292177695
1.5641935220579097E-8     -0.04276746748317056
1.576724002647913E-8      -0.04379162089933565
1.5892544832379157E-8     -0.044854492540672974
1.6017849638279186E-8     -0.04595608240718249
1.6131275137218235E-8     -0.046990725508391104
1.6244700636157284E-8     -0.0480664316450801
1.635812613509633E-8      -0.049183200817249494
1.6471551634035378E-8     -0.0503410330248993
1.6584977132974427E-8     -0.05153992826802948
1.6687649522229866E-8     -0.052665028589493214
1.6790321911485305E-8     -0.05383409326994893
1.6892994300740748E-8     -0.05504712230939667
1.6995666689996187E-8     -0.056304115707836416
1.7098339079251626E-8     -0.05760507346526816
1.7191277788931725E-8     -0.05882554745637565
1.7284216498611824E-8     -0.060093706036786765
1.737715520829192E-8      -0.06140954920650156
1.747009391797202E-8      -0.06277307696552001
1.756303262765212E-8      -0.06418428931384211
1.7647160442582766E-8     -0.06550842123056173
1.773128825751341E-8      -0.06688512788383714
1.7815416072444053E-8     -0.06831440927366839
1.7899543887374696E-8     -0.06979626540005547
1.7983671702305343E-8     -0.07133069626299834
1.805982392403696E-8      -0.0727714304368146
1.8135976145768583E-8     -0.07427130070221123
1.8212128367500202E-8     -0.07583030705918826
1.8288280589231824E-8     -0.07744844950774572
1.8364432810963442E-8     -0.07912572804788356
1.8433365552012273E-8     -0.0807025665492528
1.8502298293061096E-8     -0.08234758148681974
1.857123103410993E-8      -0.08406077286058444
1.8640163775158753E-8     -0.08584214067054691
1.8709096516207583E-8     -0.08769168491670709
1.8771494207307272E-8     -0.08943386021902594
1.883389189840696E-8      -0.09125714278190443
1.8896289589506644E-8     -0.0931615326053426
1.8958687280606333E-8     -0.09514702968934048
1.9021084971706022E-8     -0.097213634033898
1.9077567156551446E-8     -0.09916577914421719
1.9134049341396865E-8     -0.10121848028690804
1.9190531526242286E-8     -0.1033717374619706
1.9247013711087707E-8     -0.10562555066940489
1.930349589593313E-8      -0.10797991990921085
1.9354623384441523E-8     -0.11021276077407362
1.9405750872949914E-8     -0.11257769287303035
1.9456878361458308E-8     -0.1150747162060811
1.95080058499667E-8       -0.1177038307732259
1.9559133338475093E-8     -0.12046503657446465
1.9605413772971743E-8     -0.12309911793993131
1.9651694207468397E-8     -0.12592158299658127
1.9697974641965047E-8     -0.12893243174441457
1.9744255076461697E-8     -0.13213166418343128
1.9790535510958347E-8     -0.13551928031363128
1.9832428408766678E-8     -0.13878138500155968
1.987432130657501E-8      -0.14234565387020517
1.991621420438334E-8      -0.14621208691956797
1.995810710219167E-8      -0.15038068414964795
2.0E-8                    -0.15485144556044506
0                         -1.366163619092937E-4
4.189289780832979E-11     -1.3662977975725774E-4
8.378579561665958E-11     -1.3667010981969173E-4
1.2567869342498936E-10    -1.3673735209659575E-4
1.6757159123331916E-10    -1.3683150658796978E-4
2.0946448904164892E-10    -1.3695257329381376E-4
2.5574492353830083E-10    -1.371175888496415E-4
3.020253580349527E-10     -1.373155851280014E-4
3.483057925316046E-10     -1.3754656212889362E-4
3.945862270282565E-10     -1.3781051985231808E-4
4.4086666152490835E-10    -1.381074582982747E-4
4.919941500333006E-10     -1.3847387804218934E-4
5.431216385416927E-10     -1.388809155536525E-4
5.942491270500851E-10     -1.3932857083266426E-4
6.453766155584772E-10     -1.3981684387922457E-4
6.965041040668695E-10     -1.403457346933334E-4
7.529862889122908E-10     -1.4097737684770653E-4
8.094684737577123E-10     -1.416593618480237E-4
8.659506586031335E-10     -1.423916896942851E-4
9.22432843448555E-10      -1.4317436038649068E-4
9.789150282939763E-10     -1.4400737392464036E-4
1.0413127193936645E-9     -1.4498649794338737E-4
1.1037104104933525E-9     -1.4602852368431383E-4
1.1661081015930407E-9     -1.471334511474198E-4
1.228505792692729E-9      -1.4830128033270533E-4
1.290903483792417E-9      -1.4953201124017032E-4
1.3598362248412454E-9     -1.5096546083374275E-4
1.4287689658900735E-9     -1.5247829729742192E-4
1.4977017069389018E-9     -1.5407052063120795E-4
1.5666344479877299E-9     -1.557421308351008E-4
1.6355671890365582E-9     -1.5749312790910042E-4
1.7117194107681762E-9     -1.5952107944988716E-4
1.7878716324997942E-9     -1.6165045563288624E-4
1.864023854231412E-9      -1.6388125645809787E-4
1.94017607596303E-9       -1.6621348192552202E-4
2.016328297694648E-9      -1.6864713203515854E-4
2.1004561126252937E-9     -1.7145579258562416E-4
2.184583927555939E-9      -1.7439592612650544E-4
2.268711742486584E-9      -1.7746753265780244E-4
2.3528395574172295E-9     -1.8067061217951519E-4
2.4369673723478746E-9     -1.840051646916436E-4
2.529906082027975E-9      -1.8784556390351895E-4
2.622844791708075E-9      -1.9185929445058558E-4
2.715783501388175E-9      -1.960463563328436E-4
2.808722211068275E-9      -2.0040674955029307E-4
2.901660920748375E-9      -2.0494047410293378E-4
3.004333310003815E-9      -2.1015685856534515E-4
3.107005699259255E-9      -2.156062198520654E-4
3.209678088514695E-9      -2.212885579630946E-4
3.3123504777701346E-9     -2.2720387289843286E-4
3.4150228670255746E-9     -2.3335216465808E-4
3.5284483659646214E-9     -2.404257709091061E-4
3.641873864903668E-9      -2.478193690262881E-4
3.755299363842715E-9      -2.55532959009626E-4
3.868724862781761E-9      -2.6356654085911993E-4
3.982150361720808E-9      -2.719201145747697E-4
4.107455167620838E-9      -2.815381073365678E-4
4.2327599735208685E-9     -2.916061609295548E-4
4.358064779420899E-9      -3.021242753537308E-4
4.48336958532093E-9       -3.130924506090958E-4
4.60867439122096E-9       -3.2451068669564964E-4
4.74710265076309E-9       -3.3767718764316054E-4
4.885530910305219E-9      -3.514931468321E-4
5.023959169847349E-9      -3.659585642624683E-4
5.162387429389479E-9      -3.8107343993426534E-4
5.3008156889316085E-9     -3.9683777384749095E-4
5.453741850582991E-9      -4.1505711679396147E-4
5.606668012234374E-9      -4.342397415666932E-4
5.7595941738857555E-9     -4.5438564816568645E-4
5.912520335537139E-9      -4.7549483659094113E-4
6.065446497188521E-9      -4.97567306842457E-4
6.234388958943705E-9      -5.231541515958061E-4
6.403331420698887E-9      -5.502119303616255E-4
6.57227388245407E-9       -5.78740643139916E-4
6.7412163442092536E-9     -6.087402899306773E-4
6.910158805964436E-9      -6.40210870733909E-4
7.096794990760213E-9      -6.768292591269105E-4
7.283431175555989E-9      -7.157643488625811E-4
7.470067360351766E-9      -7.570161399409214E-4
7.656703545147541E-9      -8.005846323619311E-4
7.843339729943318E-9      -8.4646982612561E-4
8.049522589119894E-9      -9.001009252387412E-4
8.255705448296469E-9      -9.575033692650071E-4
8.461888307473043E-9      -0.0010186771582044074
8.66807116664962E-9       -0.001083622292056943