% Model:              EDL.mph
% Version:            COMSOL 4.4.0.248
% Date:               Nov 6 2016, 17:30
% Dimension:          1
% Nodes:              1448
% Expressions:        1
% Description:        Line graph
% r                       Height
0                         0.07253916474624048
4.189289780832979E-11     0.0725353499106813
8.378579561665958E-11     0.07253153507512211
1.2567869342498936E-10    0.07252772023956293
1.6757159123331916E-10    0.07252390540400375
2.0946448904164892E-10    0.07252009056844456
2.5574492353830083E-10    0.07250939166505406
3.020253580349527E-10     0.07249869276166357
3.483057925316046E-10     0.07248799385827306
3.945862270282565E-10     0.07247729495488257
4.4086666152490835E-10    0.07246659605149207
4.919941500333006E-10     0.07244643989415347
5.431216385416927E-10     0.07242628373681488
5.942491270500851E-10     0.07240612757947629
6.453766155584772E-10     0.0723859714221377
6.965041040668695E-10     0.0723658152647991
7.529862889122908E-10     0.07233314887446564
8.094684737577123E-10     0.07230048248413218
8.659506586031335E-10     0.07226781609379872
9.22432843448555E-10      0.07223514970346526
9.789150282939763E-10     0.0722024833131318
1.0413127193936645E-9     0.07215379108880741
1.1037104104933525E-9     0.072105098864483
1.1661081015930407E-9     0.07205640664015861
1.228505792692729E-9      0.07200771441583423
1.290903483792417E-9      0.07195902219150983
1.3598362248412454E-9     0.07188990754011305
1.4287689658900735E-9     0.07182079288871626
1.4977017069389018E-9     0.07175167823731948
1.5666344479877299E-9     0.0716825635859227
1.6355671890365582E-9     0.07161344893452593
1.7117194107681762E-9     0.07151856069206958
1.7878716324997942E-9     0.0714236724496132
1.864023854231412E-9      0.07132878420715685
1.94017607596303E-9       0.07123389596470049
2.016328297694648E-9      0.07113900772224413
2.1004561126252937E-9     0.07101174450914627
2.184583927555939E-9      0.0708844812960484
2.268711742486584E-9      0.07075721808295053
2.3528395574172295E-9     0.07062995486985266
2.4369673723478746E-9     0.0705026916567548
2.529906082027975E-9      0.07033504866257863
2.622844791708075E-9      0.07016740566840246
2.715783501388175E-9      0.06999976267422629
2.808722211068275E-9      0.06983211968005013
2.901660920748375E-9      0.06966447668587396
3.004333310003815E-9      0.06944684623607414
3.107005699259255E-9      0.06922921578627432
3.209678088514695E-9      0.0690115853364745
3.3123504777701346E-9     0.0687939548866747
3.4150228670255746E-9     0.06857632443687488
3.5284483659646214E-9     0.06829726151529429
3.641873864903668E-9      0.06801819859371369
3.755299363842715E-9      0.0677391356721331
3.868724862781761E-9      0.0674600727505525
3.982150361720808E-9      0.0671810098289719
4.107455167620838E-9      0.0668270501050753
4.2327599735208685E-9     0.06647309038117868
4.358064779420899E-9      0.06611913065728207
4.48336958532093E-9       0.06576517093338546
4.60867439122096E-9       0.06541121120948885
4.74710265076309E-9       0.06496675222758869
4.885530910305219E-9      0.0645222932456885
5.023959169847349E-9      0.06407783426378834
5.162387429389479E-9      0.06363337528188817
5.3008156889316085E-9     0.06318891629998799
5.453741850582991E-9      0.06263636407949648
5.606668012234374E-9      0.062083811859004946
5.7595941738857555E-9     0.06153125963851343
5.912520335537139E-9      0.0609787074180219
6.065446497188521E-9      0.06042615519753038
6.234388958943705E-9      0.059746322511344395
6.403331420698887E-9      0.05906648982515839
6.57227388245407E-9       0.058386657138972405
6.7412163442092536E-9     0.05770682445278641
6.910158805964436E-9      0.057026991766600414
7.096794990760213E-9      0.0561999659917322
7.283431175555989E-9      0.05537294021686398
7.470067360351766E-9      0.05454591444199576
7.656703545147541E-9      0.05371888866712754
7.843339729943318E-9      0.05289186289225933
8.049522589119894E-9      0.05189912733919488
8.255705448296469E-9      0.05090639178613043
8.461888307473043E-9      0.04991365623306597
8.66807116664962E-9       0.04892092068000153
8.874254025826196E-9      0.04792818512693707
9.099403220660955E-9      0.046769675188696486
9.324552415495714E-9      0.04561116525045589
9.549701610330474E-9      0.0444526553122153
9.774850805165232E-9      0.043294145373974705
9.999999999999992E-9      0.04213563543573412
1.0225149194834752E-8     0.040925688730941184
1.045029838966951E-8      0.039715742026148255
1.067544758450427E-8      0.03850579532135532
1.0900596779339028E-8     0.03729584861656239
1.1125745974173788E-8     0.036085901911769455
1.1331928833350368E-8     0.03495855559524548
1.1538111692526947E-8     0.0338312092787215
1.1744294551703525E-8     0.032703862962197516
1.1950477410880106E-8     0.03157651664567354
1.2156660270056686E-8     0.03044917032914956
1.2343296454852464E-8     0.029434942897022656
1.252993263964824E-8      0.02842071546489575
1.2716568824444016E-8     0.027406488032768843
1.2903205009239795E-8     0.026392260600641936
1.308984119403557E-8      0.025378033168515033
1.3258783655790755E-8     0.024482762382113388
1.3427726117545937E-8     0.023587491595711746
1.359666857930112E-8      0.022692220809310097
1.3765611041056303E-8     0.021796950022908455
1.3934553502811485E-8     0.02090167923650681
1.4087479664462868E-8     0.02012408454162643
1.4240405826114248E-8     0.01934648984674605
1.439333198776563E-8      0.018568895151865668
1.4546258149417012E-8     0.017791300456985286
1.4699184311068394E-8     0.017013705762104907
1.4837612570610523E-8     0.016347930072965176
1.4976040830152653E-8     0.015682154383825444
1.511446908969478E-8      0.015016378694685712
1.525289734923691E-8      0.014350603005545979
1.539132560877904E-8      0.013684827316406247
1.5516630414679068E-8     0.013122107688261088
1.5641935220579097E-8     0.01255938806011593
1.576724002647913E-8      0.011996668431970772
1.5892544832379157E-8     0.011433948803825615
1.6017849638279186E-8     0.010871229175680456
1.6131275137218235E-8     0.010401359190807518
1.6244700636157284E-8     0.00993148920593458
1.635812613509633E-8      0.009461619221061642
1.6471551634035378E-8     0.008991749236188703
1.6584977132974427E-8     0.008521879251315765
1.6687649522229866E-8     0.008134137978419012
1.6790321911485305E-8     0.007746396705522258
1.6892994300740748E-8     0.007358655432625504
1.6995666689996187E-8     0.006970914159728751
1.7098339079251626E-8     0.006583172886831998
1.7191277788931725E-8     0.006266961279421597
1.7284216498611824E-8     0.005950749672011195
1.737715520829192E-8      0.005634538064600793
1.747009391797202E-8      0.005318326457190391
1.756303262765212E-8      0.0050021148497799905
1.7647160442582766E-8     0.00474737085088277
1.773128825751341E-8      0.00449262685198555
1.7815416072444053E-8     0.00423788285308833
1.7899543887374696E-8     0.003983138854191111
1.7983671702305343E-8     0.0037283948552938903
1.805982392403696E-8      0.0035258831188286557
1.8135976145768583E-8     0.0033233713823634208
1.8212128367500202E-8     0.0031208596458981858
1.8288280589231824E-8     0.0029183479094329508
1.8364432810963442E-8     0.0027158361729677162
1.8433365552012273E-8     0.0025572889169742557
1.8502298293061096E-8     0.0023987416609807946
1.857123103410993E-8      0.002240194404987334
1.8640163775158753E-8     0.0020816471489938735
1.8709096516207583E-8     0.0019230998930004127
1.8771494207307272E-8     0.001801209299367229
1.883389189840696E-8      0.001679318705734045
1.8896289589506644E-8     0.0015574281121008612
1.8958687280606333E-8     0.001435537518467677
1.9021084971706022E-8     0.0013136469248344932
1.9077567156551446E-8     0.001222029408514917
1.9134049341396865E-8     0.0011304118921953406
1.9190531526242286E-8     0.0010387943758757643
1.9247013711087707E-8     9.47176859556188E-4
1.930349589593313E-8      8.555593432366118E-4
1.9354623384441523E-8     7.886941484686003E-4
1.9405750872949914E-8     7.218289537005888E-4
1.9456878361458308E-8     6.549637589325773E-4
1.95080058499667E-8       5.880985641645658E-4
1.9559133338475093E-8     5.212333693965543E-4
1.9605413772971743E-8     4.7446282462533003E-4
1.9651694207468397E-8     4.276922798541058E-4
1.9697974641965047E-8     3.809217350828815E-4
1.9744255076461697E-8     3.3415119031165725E-4
1.9790535510958347E-8     2.8738064554043296E-4
1.9832428408766678E-8     2.5656744424707687E-4
1.987432130657501E-8      2.2575424295372067E-4
1.991621420438334E-8      1.9494104166036455E-4
1.995810710219167E-8      1.6412784036700837E-4
2.0E-8                    1.3331463907365225E-4
0                         0.3733317107857858
4.189289780832979E-11     0.3733184751028453
8.378579561665958E-11     0.37330523941990484
1.2567869342498936E-10    0.3732920037369643
1.6757159123331916E-10    0.3732787680540238
2.0946448904164892E-10    0.37326553237108334
2.5574492353830083E-10    0.3732284095190235
3.020253580349527E-10     0.37319128666696355
3.483057925316046E-10     0.3731541638149036
3.945862270282565E-10     0.3731170409628437
4.4086666152490835E-10    0.37307991811078384
4.919941500333006E-10     0.37300996449150553
5.431216385416927E-10     0.3729400108722273
5.942491270500851E-10     0.37287005725294897
6.453766155584772E-10     0.3728001036336707
6.965041040668695E-10     0.3727301500143924
7.529862889122908E-10     0.3726167273785926
8.094684737577123E-10     0.37250330474279275
8.659506586031335E-10     0.3723898821069929
9.22432843448555E-10      0.3722764594711931
9.789150282939763E-10     0.37216303683539326
1.0413127193936645E-9     0.37199385340248053
1.1037104104933525E-9     0.3718246699695677
1.1661081015930407E-9     0.371655486536655
1.228505792692729E-9      0.3714863031037422
1.290903483792417E-9      0.3713171196708294
1.3598362248412454E-9     0.37107673617187736
1.4287689658900735E-9     0.37083635267292525
1.4977017069389018E-9     0.37059596917397314
1.5666344479877299E-9     0.370355585675021
1.6355671890365582E-9     0.37011520217606897
1.7117194107681762E-9     0.36978471376659167
1.7878716324997942E-9     0.3694542253571143
1.864023854231412E-9      0.369123736947637
1.94017607596303E-9       0.3687932485381597
2.016328297694648E-9      0.36846276012868234
2.1004561126252937E-9     0.3680186624485634
2.184583927555939E-9      0.3675745647684444
2.268711742486584E-9      0.36713046708832553
2.3528395574172295E-9     0.36668636940820654
2.4369673723478746E-9     0.3662422717280876
2.529906082027975E-9      0.36565576261081406
2.622844791708075E-9      0.3650692534935405
2.715783501388175E-9      0.36448274437626693
2.808722211068275E-9      0.3638962352589934
2.901660920748375E-9      0.36330972614171986
3.004333310003815E-9      0.3625457533274176
3.107005699259255E-9      0.3617817805131153
3.209678088514695E-9      0.36101780769881303
3.3123504777701346E-9     0.3602538348845108
3.4150228670255746E-9     0.3594898620702085
3.5284483659646214E-9     0.3585059009733526
3.641873864903668E-9      0.35752193987649666
3.755299363842715E-9      0.3565379787796407
3.868724862781761E-9      0.3555540176827848
3.982150361720808E-9      0.3545700565859289
4.107455167620838E-9      0.3533148530658359
4.2327599735208685E-9     0.3520596495457428
4.358064779420899E-9      0.3508044460256498
4.48336958532093E-9       0.3495492425055568
4.60867439122096E-9       0.34829403898546374
4.74710265076309E-9       0.34670623794806654
4.885530910305219E-9      0.3451184369106693
5.023959169847349E-9      0.34353063587327204
5.162387429389479E-9      0.3419428348358748
5.3008156889316085E-9     0.3403550337984776
5.453741850582991E-9      0.3383622860090776
5.606668012234374E-9      0.33636953821967763
5.7595941738857555E-9     0.33437679043027757
5.912520335537139E-9      0.3323840426408776
6.065446497188521E-9      0.3303912948514776
6.234388958943705E-9      0.32790953421930014
6.403331420698887E-9      0.32542777358712266
6.57227388245407E-9       0.3229460129549451
6.7412163442092536E-9     0.32046425232276765
6.910158805964436E-9      0.3179824916905902
7.096794990760213E-9      0.3149157461357205
7.283431175555989E-9      0.31184900058085085
7.470067360351766E-9      0.30878225502598117
7.656703545147541E-9      0.30571550947111154
7.843339729943318E-9      0.30264876391624185
8.049522589119894E-9      0.2988922119211657
8.255705448296469E-9      0.29513565992608953
8.461888307473043E-9      0.29137910793101335
8.66807116664962E-9       0.2876225559359372
8.874254025826196E-9      0.28386600394086103
9.099403220660955E-9      0.2793654378241801
9.324552415495714E-9      0.2748648717074991
9.549701610330474E-9      0.27036430559081814
9.774850805165232E-9      0.2658637394741372
9.999999999999992E-9      0.26136317335745624
1.0225149194834752E-8     0.2565069170675278
1.045029838966951E-8      0.25165066077759934
1.067544758450427E-8      0.24679440448767093
1.0900596779339028E-8     0.2419381481977425
1.1125745974173788E-8     0.23708189190781406
1.1331928833350368E-8     0.23238365954552828
1.1538111692526947E-8     0.22768542718324242
1.1744294551703525E-8     0.22298719482095664
1.1950477410880106E-8     0.2182889624586708
1.2156660270056686E-8     0.213590730096385
1.2343296454852464E-8     0.20918735151753529
1.252993263964824E-8      0.20478397293868553
1.2716568824444016E-8     0.2003805943598358
1.2903205009239795E-8     0.19597721578098606
1.308984119403557E-8      0.19157383720213633
1.3258783655790755E-8     0.18751024712666942
1.3427726117545937E-8     0.18344665705120244
1.359666857930112E-8      0.1793830669757355
1.3765611041056303E-8     0.17531947690026856
1.3934553502811485E-8     0.1712558868248016
1.4087479664462868E-8     0.1675521790818511
1.4240405826114248E-8     0.16384847133890057
1.439333198776563E-8      0.16014476359595003
1.4546258149417012E-8     0.1564410558529995
1.4699184311068394E-8     0.152737348110049
1.4837612570610523E-8     0.1493949478536566
1.4976040830152653E-8     0.1460525475972642
1.511446908969478E-8      0.14271014734087176
1.525289734923691E-8      0.13936774708447935
1.539132560877904E-8      0.13602534682808695
1.5516630414679068E-8     0.13303268888043895
1.5641935220579097E-8     0.13004003093279096
1.576724002647913E-8      0.12704737298514293
1.5892544832379157E-8     0.12405471503749492
1.6017849638279186E-8     0.12106205708984692
1.6131275137218235E-8     0.11839947290124278
1.6244700636157284E-8     0.11573688871263862
1.635812613509633E-8      0.11307430452403448
1.6471551634035378E-8     0.11041172033543034
1.6584977132974427E-8     0.10774913614682619
1.6687649522229866E-8     0.10539219866187857
1.6790321911485305E-8     0.10303526117693093
1.6892994300740748E-8     0.1006783236919833
1.6995666689996187E-8     0.09832138620703568
1.7098339079251626E-8     0.09596444872208805
1.7191277788931725E-8     0.09388640262534655
1.7284216498611824E-8     0.09180835652860501
1.737715520829192E-8      0.0897303104318635
1.747009391797202E-8      0.08765226433512198
1.756303262765212E-8      0.08557421823838046
1.7647160442582766E-8     0.083747668259982
1.773128825751341E-8      0.08192111828158354
1.7815416072444053E-8     0.08009456830318509
1.7899543887374696E-8     0.07826801832478662
1.7983671702305343E-8     0.07644146834638817
1.805982392403696E-8      0.07483960379712146
1.8135976145768583E-8     0.07323773924785473
1.8212128367500202E-8     0.07163587469858801
1.8288280589231824E-8     0.0700340101493213
1.8364432810963442E-8     0.06843214560005458
1.8433365552012273E-8     0.06702961710622139
1.8502298293061096E-8     0.06562708861238821
1.857123103410993E-8      0.06422456011855501
1.8640163775158753E-8     0.06282203162472183
1.8709096516207583E-8     0.06141950313088865
1.8771494207307272E-8     0.06019283597219473
1.883389189840696E-8      0.05896616881350081
1.8896289589506644E-8     0.05773950165480689
1.8958687280606333E-8     0.05651283449611297
1.9021084971706022E-8     0.05528616733741905
1.9077567156551446E-8     0.05421395151267102
1.9134049341396865E-8     0.05314173568792298
1.9190531526242286E-8     0.05206951986317495
1.9247013711087707E-8     0.05099730403842692
1.930349589593313E-8      0.049925088213678886
1.9354623384441523E-8     0.048988062149870344
1.9405750872949914E-8     0.04805103608606179
1.9456878361458308E-8     0.04711401002225324
1.95080058499667E-8       0.04617698395844469
1.9559133338475093E-8     0.04523995789463614
1.9605413772971743E-8     0.04442094875414102
1.9651694207468397E-8     0.0436019396136459
1.9697974641965047E-8     0.04278293047315078
1.9744255076461697E-8     0.041963921332655654
1.9790535510958347E-8     0.041144912192160536
1.9832428408766678E-8     0.040428527930348554
1.987432130657501E-8      0.03971214366853657
1.991621420438334E-8      0.038995759406724596
1.995810710219167E-8      0.038279375144912614
2.0E-8                    0.03756299088310063
0                         5.9378045596114735
4.189289780832979E-11     5.9376955275847605
8.378579561665958E-11     5.9375864955580475
1.2567869342498936E-10    5.9374774635313345
1.6757159123331916E-10    5.937368431504622
2.0946448904164892E-10    5.937259399477909
2.5574492353830083E-10    5.936953272263811
3.020253580349527E-10     5.936647145049713
3.483057925316046E-10     5.936341017835616
3.945862270282565E-10     5.936034890621518
4.4086666152490835E-10    5.935728763407421
4.919941500333006E-10     5.935150776730763
5.431216385416927E-10     5.934572790054105
5.942491270500851E-10     5.933994803377447
6.453766155584772E-10     5.93341681670079
6.965041040668695E-10     5.9328388300241315
7.529862889122908E-10     5.931898639700492
8.094684737577123E-10     5.930958449376851
8.659506586031335E-10     5.930018259053211
9.22432843448555E-10      5.929078068729571
9.789150282939763E-10     5.9281378784059315
1.0413127193936645E-9     5.926728485313383
1.1037104104933525E-9     5.9253190922208345
1.1661081015930407E-9     5.923909699128285
1.228505792692729E-9      5.922500306035737
1.290903483792417E-9      5.921090912943188
1.3598362248412454E-9     5.919073993725657
1.4287689658900735E-9     5.917057074508125
1.4977017069389018E-9     5.915040155290594
1.5666344479877299E-9     5.9130232360730615
1.6355671890365582E-9     5.911006316855531
1.7117194107681762E-9     5.908205794724867
1.7878716324997942E-9     5.905405272594204
1.864023854231412E-9      5.90260475046354
1.94017607596303E-9       5.8998042283328775
2.016328297694648E-9      5.897003706202214
2.1004561126252937E-9     5.893189828494606
2.184583927555939E-9      5.889375950786997
2.268711742486584E-9      5.885562073079388
2.3528395574172295E-9     5.88174819537178
2.4369673723478746E-9     5.877934317664171
2.529906082027975E-9      5.872807576768167
2.622844791708075E-9      5.867680835872163
2.715783501388175E-9      5.862554094976158
2.808722211068275E-9      5.857427354080153
2.901660920748375E-9      5.852300613184149
3.004333310003815E-9      5.845467459659433
3.107005699259255E-9      5.8386343061347175
3.209678088514695E-9      5.8318011526100015
3.3123504777701346E-9     5.824967999085286
3.4150228670255746E-9     5.81813484556057
3.5284483659646214E-9     5.809071298146331
3.641873864903668E-9      5.800007750732092
3.755299363842715E-9      5.790944203317853
3.868724862781761E-9      5.781880655903614
3.982150361720808E-9      5.772817108489376
4.107455167620838E-9      5.760816980201103
4.2327599735208685E-9     5.74881685191283
4.358064779420899E-9      5.736816723624557
4.48336958532093E-9       5.724816595336284
4.60867439122096E-9       5.712816467048012
4.74710265076309E-9       5.696914845873048
4.885530910305219E-9      5.6810132246980825
5.023959169847349E-9      5.665111603523119
5.162387429389479E-9      5.649209982348154
5.3008156889316085E-9     5.63330836117319
5.453741850582991E-9      5.612175506434767
5.606668012234374E-9      5.591042651696344
5.7595941738857555E-9     5.569909796957921
5.912520335537139E-9      5.548776942219497
6.065446497188521E-9      5.527644087481075
6.234388958943705E-9      5.499428232181905
6.403331420698887E-9      5.471212376882734
6.57227388245407E-9       5.442996521583563
6.7412163442092536E-9     5.414780666284393
6.910158805964436E-9      5.386564810985222
7.096794990760213E-9      5.3486606195488955
7.283431175555989E-9      5.310756428112567
7.470067360351766E-9      5.272852236676241
7.656703545147541E-9      5.234948045239912
7.843339729943318E-9      5.197043853803586
8.049522589119894E-9      5.1458193459852595
8.255705448296469E-9      5.094594838166934
8.461888307473043E-9      5.0433703303486075
8.66807116664962E-9       4.992145822530281
8.874254025826196E-9      4.9409213147119555
9.099403220660955E-9      4.872268066002832
9.324552415495714E-9      4.803614817293708
9.549701610330474E-9      4.734961568584584
9.774850805165232E-9      4.666308319875459
9.999999999999992E-9      4.5976550711663355
1.0225149194834752E-8     4.514405076231072
1.045029838966951E-8      4.431155081295809
1.067544758450427E-8      4.347905086360544
1.0900596779339028E-8     4.264655091425281
1.1125745974173788E-8     4.181405096490018
1.1331928833350368E-8     4.091748912512459
1.1538111692526947E-8     4.0020927285349
1.1744294551703525E-8     3.912436544557341
1.1950477410880106E-8     3.822780360579782
1.2156660270056686E-8     3.733124176602223
1.2343296454852464E-8     3.6413394455457153
1.252993263964824E-8      3.5495547144892075
1.2716568824444016E-8     3.4577699834326996
1.2903205009239795E-8     3.365985252376192
1.308984119403557E-8      3.2742005213196843
1.3258783655790755E-8     3.183484101676753
1.3427726117545937E-8     3.0927676820338217
1.359666857930112E-8      3.0020512623908906
1.3765611041056303E-8     2.911334842747959
1.3934553502811485E-8     2.820618423105028
1.4087479664462868E-8     2.7338408398554703
1.4240405826114248E-8     2.647063256605913
1.439333198776563E-8      2.5602856733563555
1.4546258149417012E-8     2.4735080901067983
1.4699184311068394E-8     2.3867305068572406
1.4837612570610523E-8     2.306151345106653
1.4976040830152653E-8     2.2255721833560647
1.511446908969478E-8      2.144993021605477
1.525289734923691E-8      2.0644138598548887
1.539132560877904E-8      1.9838346981043005
1.5516630414679068E-8     1.9109877206398664
1.5641935220579097E-8     1.8381407431754322
1.576724002647913E-8      1.765293765710998
1.5892544832379157E-8     1.6924467882465637
1.6017849638279186E-8     1.6195998107821297
1.6131275137218235E-8     1.5553354231805492
1.6244700636157284E-8     1.4910710355789685
1.635812613509633E-8      1.4268066479773878
1.6471551634035378E-8     1.3625422603758075
1.6584977132974427E-8     1.2982778727742268
1.6687649522229866E-8     1.2428558007675783
1.6790321911485305E-8     1.1874337287609293
1.6892994300740748E-8     1.132011656754281
1.6995666689996187E-8     1.0765895847476321
1.7098339079251626E-8     1.0211675127409836
1.7191277788931725E-8     0.9743601960035032
1.7284216498611824E-8     0.9275528792660228
1.737715520829192E-8      0.8807455625285424
1.747009391797202E-8      0.833938245791062
1.756303262765212E-8      0.7871309290535816
1.7647160442582766E-8     0.7483732028596254
1.773128825751341E-8      0.7096154766656692
1.7815416072444053E-8     0.6708577504717129
1.7899543887374696E-8     0.6321000242777567
1.7983671702305343E-8     0.5933422980838005
1.805982392403696E-8      0.5618700344307206
1.8135976145768583E-8     0.5303977707776407
1.8212128367500202E-8     0.49892550712456085
1.8288280589231824E-8     0.467453243471481
1.8364432810963442E-8     0.43598097981840117
1.8433365552012273E-8     0.410938230155364
1.8502298293061096E-8     0.38589548049232675
1.857123103410993E-8      0.3608527308292896
1.8640163775158753E-8     0.3358099811662524
1.8709096516207583E-8     0.3107672315032152
1.8771494207307272E-8     0.291278745256897
1.883389189840696E-8      0.27179025901057874
1.8896289589506644E-8     0.2523017727642605
1.8958687280606333E-8     0.2328132865179423
1.9021084971706022E-8     0.21332480027162407
1.9077567156551446E-8     0.1985451655511491
1.9134049341396865E-8     0.1837655308306741
1.9190531526242286E-8     0.16898589611019912
1.9247013711087707E-8     0.15420626138972413
1.930349589593313E-8      0.13942662666924915
1.9354623384441523E-8     0.12857098818223311
1.9405750872949914E-8     0.11771534969521708
1.9456878361458308E-8     0.10685971120820106
1.95080058499667E-8       0.09600407272118501
1.9559133338475093E-8     0.08514843423416898
1.9605413772971743E-8     0.077521638059013
1.9651694207468397E-8     0.06989484188385703
1.9697974641965047E-8     0.06226804570870104
1.9744255076461697E-8     0.054641249533545065
1.9790535510958347E-8     0.04701445335838909
1.9832428408766678E-8     0.04197582590464585
1.987432130657501E-8      0.03693719845090262
1.991621420438334E-8      0.031898570997159384
1.995810710219167E-8      0.02685994354341615
2.0E-8                    0.02182131608967292
0                         9.933228549329007
4.189289780832979E-11     9.933195079813386
8.378579561665958E-11     9.933161610297764
1.2567869342498936E-10    9.933128140782145
1.6757159123331916E-10    9.933094671266524
2.0946448904164892E-10    9.933061201750903
2.5574492353830083E-10    9.932967170840884
3.020253580349527E-10     9.932873139930866
3.483057925316046E-10     9.932779109020846
3.945862270282565E-10     9.932685078110827
4.4086666152490835E-10    9.932591047200809
4.919941500333006E-10     9.932413272102073
5.431216385416927E-10     9.932235497003337
5.942491270500851E-10     9.9320577219046
6.453766155584772E-10     9.931879946805864
6.965041040668695E-10     9.931702171707128
7.529862889122908E-10     9.931412302369793
8.094684737577123E-10     9.931122433032458
8.659506586031335E-10     9.930832563695123
9.22432843448555E-10      9.930542694357786
9.789150282939763E-10     9.930252825020451
1.0413127193936645E-9     9.92981671835289
1.1037104104933525E-9     9.929380611685332
1.1661081015930407E-9     9.928944505017771
1.228505792692729E-9      9.928508398350212
1.290903483792417E-9      9.928072291682652
1.3598362248412454E-9     9.927444927434708
1.4287689658900735E-9     9.926817563186763
1.4977017069389018E-9     9.92619019893882
1.5666344479877299E-9     9.925562834690874
1.6355671890365582E-9     9.92493547044293
1.7117194107681762E-9     9.92405803991146
1.7878716324997942E-9     9.92318060937999
1.864023854231412E-9      9.92230317884852
1.94017607596303E-9       9.92142574831705
2.016328297694648E-9      9.92054831778558
2.1004561126252937E-9     9.91934164653853
2.184583927555939E-9      9.918134975291482
2.268711742486584E-9      9.916928304044433
2.3528395574172295E-9     9.915721632797384
2.4369673723478746E-9     9.914514961550335
2.529906082027975E-9      9.912871763684993
2.622844791708075E-9      9.911228565819652
2.715783501388175E-9      9.90958536795431
2.808722211068275E-9      9.907942170088969
2.901660920748375E-9      9.906298972223627
3.004333310003815E-9      9.904071594353075
3.107005699259255E-9      9.901844216482521
3.209678088514695E-9      9.89961683861197
3.3123504777701346E-9     9.897389460741415
3.4150228670255746E-9     9.895162082870861
3.5284483659646214E-9     9.89214296100612
3.641873864903668E-9      9.889123839141378
3.755299363842715E-9      9.886104717276636
3.868724862781761E-9      9.883085595411895
3.982150361720808E-9      9.880066473547153
4.107455167620838E-9      9.875957571672538
4.2327599735208685E-9     9.871848669797922
4.358064779420899E-9      9.867739767923306
4.48336958532093E-9       9.863630866048691
4.60867439122096E-9       9.859521964174075
4.74710265076309E-9       9.853884986066248
4.885530910305219E-9      9.848248007958421
5.023959169847349E-9      9.842611029850595
5.162387429389479E-9      9.836974051742768
5.3008156889316085E-9     9.831337073634941
5.453741850582991E-9      9.823513774695328
5.606668012234374E-9      9.815690475755714
5.7595941738857555E-9     9.8078671768161
5.912520335537139E-9      9.800043877876485
6.065446497188521E-9      9.792220578936872
6.234388958943705E-9      9.781196641066739
6.403331420698887E-9      9.770172703196605
6.57227388245407E-9       9.759148765326472
6.7412163442092536E-9     9.748124827456337
6.910158805964436E-9      9.737100889586204
7.096794990760213E-9      9.721264740090541
7.283431175555989E-9      9.70542859059488
7.470067360351766E-9      9.689592441099217
7.656703545147541E-9      9.673756291603555
7.843339729943318E-9      9.657920142107892
8.049522589119894E-9      9.63465804920162
8.255705448296469E-9      9.611395956295347
8.461888307473043E-9      9.588133863389073
8.66807116664962E-9       9.5648717704828
8.874254025826196E-9      9.541609677576528
9.099403220660955E-9      9.50703653367722
9.324552415495714E-9      9.47246338977791
9.549701610330474E-9      9.437890245878602
9.774850805165232E-9      9.403317101979296
9.999999999999992E-9      9.368743958079987
1.0225149194834752E-8     9.3214074096888
1.045029838966951E-8      9.274070861297615
1.067544758450427E-8      9.226734312906428
1.0900596779339028E-8     9.179397764515242
1.1125745974173788E-8     9.132061216124056
1.1331928833350368E-8     9.07391208531666
1.1538111692526947E-8     9.015762954509263
1.1744294551703525E-8     8.957613823701868
1.1950477410880106E-8     8.89946469289447
1.2156660270056686E-8     8.841315562087075
1.2343296454852464E-8     8.773220941581972
1.252993263964824E-8      8.705126321076868
1.2716568824444016E-8     8.637031700571765
1.2903205009239795E-8     8.568937080066659
1.308984119403557E-8      8.500842459561555
1.3258783655790755E-8     8.423661517986266
1.3427726117545937E-8     8.346480576410977
1.359666857930112E-8      8.269299634835686
1.3765611041056303E-8     8.192118693260397
1.3934553502811485E-8     8.114937751685108
1.4087479664462868E-8     8.030153502880182
1.4240405826114248E-8     7.945369254075256
1.439333198776563E-8      7.86058500527033